                         Program Version 6.0.1  -  RELEASE   -
|  1>  !B3LYP D4 DEF2-SVP FREQ
|  2> * XYZ 0 1
|  3> C         -0.81589       -0.51571       -0.02512
|  4> C          0.30690        0.49327       -0.06114
|  5> H         -0.42809       -1.56713       -0.28060
|  6> H         -1.26914       -0.51520        1.06962
|  7> H         -1.64631       -0.14518       -0.75104
|  8> O          0.16587        1.68279       -0.21470
|  9> O          1.51380       -0.07303        0.21899
| 10> H          2.16801        0.64625        0.13143
| 11> *
| 12>
| 13>                          ****END OF INPUT****

CARTESIAN COORDINATES (ANGSTROEM)
---------------------------------
  C     -0.815890   -0.515710   -0.025120
  C      0.306900    0.493270   -0.061140
  H     -0.428090   -1.567130   -0.280600
  H     -1.269140   -0.515200    1.069620
  H     -1.646310   -0.145180   -0.751040
  O      0.165870    1.682790   -0.214700
  O      1.513800   -0.073030    0.218990
  H      2.168010    0.646250    0.131430

 Total Charge           Charge          ....    0
 Multiplicity           Mult            ....    1
 Number of Electrons    NEL             ....   32
 Basis Dimension        Dim             ....   76

ORBITAL ENERGIES
----------------

  NO   OCC          E(Eh)            E(eV)
   0   2.0000     -19.177868      -521.8563
   1   2.0000     -19.120764      -520.3024
   2   2.0000     -10.317408      -280.7509
   3   2.0000     -10.218060      -278.0475
   4   2.0000      -1.089967       -29.6595
   5   2.0000      -1.000393       -27.2221
   6   2.0000      -0.739432       -20.1210
   7   2.0000      -0.598752       -16.2929
   8   2.0000      -0.480717       -13.0810
   9   2.0000      -0.471130       -12.8201
  10   2.0000      -0.462817       -12.5939
  11   2.0000      -0.402205       -10.9445
  12   2.0000      -0.391957       -10.6657
  13   2.0000      -0.380887       -10.3645
  14   2.0000      -0.319421        -8.6919
  15   2.0000      -0.276890        -7.5346
  16   0.0000       0.002144         0.0583
  17   0.0000       0.048876         1.3300
  18   0.0000       0.075456         2.0532
  19   0.0000       0.111906         3.0451
  20   0.0000       0.125597         3.4177

MULLIKEN ATOMIC CHARGES
-----------------------
   0 C :   -0.055889
   1 C :    0.097380
   2 H :    0.056188
   3 H :    0.077749
   4 H :    0.066002
   5 O :   -0.223231
   6 O :   -0.198268
   7 H :    0.180069
Sum of atomic charges:   -0.0000000

LOEWDIN ATOMIC CHARGES
----------------------
   0 C :   -0.097146
   1 C :    0.076107
   2 H :    0.046519
   3 H :    0.067770
   4 H :    0.056370
   5 O :   -0.184610
   6 O :   -0.059333
   7 H :    0.094323

  Mayer bond orders larger than 0.100000
B(  0-C ,  1-C ) :   1.0195 B(  0-C ,  2-H ) :   0.9530 B(  0-C ,  3-H ) :   0.9484
B(  0-C ,  4-H ) :   0.9597 B(  1-C ,  5-O ) :   2.1006 B(  1-C ,  6-O ) :   1.2006
B(  6-O ,  7-H ) :   0.9501

Dispersion correction           -0.006127271
FINAL SINGLE POINT ENERGY      -228.796104211995

DIPOLE MOMENT
-------------

Method             : SCF
Type of density    : Electron Density
Multiplicity       :   1
Irrep              :   0
Energy             :  -228.7899769408167003 Eh
Relativity type    :
Basis              : AO
                                X                 Y                 Z
Electronic contribution:      2.436590894       2.395654849      -0.135264753
Nuclear contribution   :     -2.310891628      -2.964439205       0.209176832
                        -----------------------------------------
Total Dipole Moment    :      0.125699266      -0.568784356       0.073912078
                        -----------------------------------------
Magnitude (a.u.)       :      0.587178801
Magnitude (Debye)      :      1.492489902

VIBRATIONAL FREQUENCIES
-----------------------

Scaling factor for frequencies =  1.000000000  (already applied!)

     0:       0.00 cm**-1
     1:       0.00 cm**-1
     2:       0.00 cm**-1
     3:       0.00 cm**-1
     4:       0.00 cm**-1
     5:       0.00 cm**-1
     6:     482.13 cm**-1
     7:     591.76 cm**-1
     8:     614.45 cm**-1
     9:     641.86 cm**-1
    10:     739.49 cm**-1
    11:     862.86 cm**-1
    12:    1097.75 cm**-1
    13:    1152.48 cm**-1
    14:    1229.85 cm**-1
    15:    1355.61 cm**-1
    16:    1464.16 cm**-1
    17:    1481.62 cm**-1
    18:    1492.93 cm**-1
    19:    1848.07 cm**-1
    20:    2407.97 cm**-1
    21:    2578.16 cm**-1
    22:    2705.97 cm**-1
    23:    3700.44 cm**-1

IR SPECTRUM
-----------

 Mode   freq       eps      Int      T**2         TX        TY        TZ
       cm**-1   L/(mol*cm) km/mol    a.u.
----------------------------------------------------------------------------
  6:    482.13   0.001273    6.43  0.000824  (-0.020754  0.017338 -0.009615)
  7:    591.76   0.007506   37.93  0.003958  (-0.061115 -0.014903 -0.001048)
  8:    614.45   0.009246   46.73  0.004696  (-0.008595  0.012457  0.066834)
  9:    641.86   0.000102    0.52  0.000050  (-0.002873  0.000952 -0.006370)
 10:    739.49   0.015818   79.94  0.006675  ( 0.002368 -0.013959 -0.080465)
 11:    862.86   0.000694    3.51  0.000251  (-0.001714 -0.015738 -0.000631)
 12:   1097.75   0.028703  145.05  0.008160  (-0.086716  0.021969 -0.012542)
 13:   1152.48   0.001211    6.12  0.000328  (-0.009843 -0.005239  0.014269)
 14:   1229.85   0.029783  150.51  0.007557  (-0.084299  0.014581 -0.015436)
 15:   1355.61   0.007573   38.27  0.001743  (-0.041660 -0.001806 -0.002130)
 16:   1464.16   0.007348   37.13  0.001566  ( 0.039003  0.005065 -0.004392)
 17:   1481.62   0.001553    7.85  0.000327  ( 0.001661 -0.013128  0.012332)
 18:   1492.93   0.002536   12.81  0.000530  ( 0.016113  0.012789  0.010337)
 19:   1848.07   0.058002  293.12  0.009794  ( 0.022481 -0.094646  0.018192)
 20:   2407.97   0.000632    3.19  0.000082  ( 0.002780 -0.000199 -0.008610)
 21:   2578.16   0.000907    4.58  0.000110  (-0.006769 -0.000753 -0.007961)
 22:   2705.97   0.001369    6.92  0.000158  (-0.002825  0.012192  0.001116)
 23:   3700.44   0.012030   60.79  0.001014  (-0.027027 -0.016781  0.001557)

--------------------------
THERMOCHEMISTRY AT 298.15K
--------------------------

Temperature         ...   298.15 K
Pressure            ...     1.00 atm
Total Mass          ...    60.05 AMU
Quasi RRHO          ...     True
Cut-Off Frequency   ...     1.00 cm^-1

Throughout the following assumptions are being made:
  (1) The electronic state is orbitally nondegenerate
  (2) There are no thermally accessible electronically excited states
  (3) Hindered rotations indicated by low frequency modes are not
      treated as such but are treated as vibrations and this may
      cause some error
  (4) All equations used are the standard statistical mechanics
      equations for an ideal gas
  (5) All vibrations are strictly harmonic

freq.     482.13  E(vib)   ...       0.15
freq.     591.76  E(vib)   ...       0.10
freq.     614.45  E(vib)   ...       0.10
freq.     641.86  E(vib)   ...       0.09
freq.     739.49  E(vib)   ...       0.06
freq.     862.86  E(vib)   ...       0.04
freq.    1097.75  E(vib)   ...       0.02
freq.    1152.48  E(vib)   ...       0.01
freq.    1229.85  E(vib)   ...       0.01
freq.    1355.61  E(vib)   ...       0.01
freq.    1464.16  E(vib)   ...       0.00
freq.    1481.62  E(vib)   ...       0.00
freq.    1492.93  E(vib)   ...       0.00
freq.    1848.07  E(vib)   ...       0.00
freq.    2407.97  E(vib)   ...       0.00
freq.    2578.16  E(vib)   ...       0.00
freq.    2705.97  E(vib)   ...       0.00
freq.    3700.44  E(vib)   ...       0.00

------------
INNER ENERGY
------------

The inner energy is: U= E(el) + E(ZPE) + E(vib) + E(rot) + E(trans)
    E(el)   - is the total energy from the electronic structure calculation
              = E(kin-el) + E(nuc-el) + E(el-el) + E(nuc-nuc)
    E(ZPE)  - the the zero temperature vibrational energy from the frequency calculation
    E(vib)  - the the finite temperature correction to E(ZPE) due to population
              of excited vibrational states
    E(rot)  - is the rotational thermal energy
    E(trans)- is the translational thermal energy

Summary of contributions to the inner energy U:
Electronic energy                ...   -228.79610421 Eh
Zero point energy                ...      0.06025193 Eh      37.81 kcal/mol
Thermal vibrational correction   ...      0.00093923 Eh       0.59 kcal/mol
Thermal rotational correction    ...      0.00141627 Eh       0.89 kcal/mol
Thermal translational correction ...      0.00141627 Eh       0.89 kcal/mol
-----------------------------------------------------------------------
Total thermal energy                   -228.73208051 Eh

Summary of corrections to the electronic energy:
(perhaps to be used in another calculation)
Total thermal correction                  0.00377177 Eh       2.37 kcal/mol
Non-thermal (ZPE) correction              0.06025193 Eh      37.81 kcal/mol
-----------------------------------------------------------------------
Total correction                          0.06402370 Eh      40.18 kcal/mol

--------
ENTHALPY
--------

The enthalpy is H = U + kB*T
                kB is Boltzmann's constant
Total thermal energy              ...   -228.73208051 Eh
Thermal Enthalpy correction       ...      0.00094421 Eh       0.59 kcal/mol
-----------------------------------------------------------------------
Total Enthalpy                    ...   -228.73113630 Eh

Note: Only C1 symmetry has been detected, increase convergence thresholds
      if your molecule has a higher symmetry. Symmetry factor of 1.0 is
      used for the rotational entropy correction.

Note: Rotational entropy computed according to Herzberg
Infrared and Raman Spectra, Chapter V,1, Van Nostrand Reinhold, 1945
Point Group:  C1, Symmetry Number:   1
Rotational constants in cm-1:     0.371875     0.311183     0.175860

Vibrational entropy computed according to the QRRHO of S. Grimme
Chem.Eur.J. 2012 18 9955 using a reference frequency of 100.0 cm-1

-------
ENTROPY
-------

The entropy contributions are T*S = T*(S(el)+S(vib)+S(rot)+S(trans))
     S(el)   - electronic entropy
     S(vib)  - vibrational entropy
     S(rot)  - rotational entropy
     S(trans)- translational entropy
The entropies will be listed as multiplied by the temperature to get
units of energy

Electronic entropy                ...      0.00000000 Eh      0.00 kcal/mol
Vibrational entropy               ...      0.00124351 Eh      0.78 kcal/mol
Rotational entropy                ...      0.01134943 Eh      7.12 kcal/mol
Translational entropy             ...      0.01814900 Eh     11.39 kcal/mol
-----------------------------------------------------------------------
Final entropy term                ...      0.03074195 Eh     19.29 kcal/mol

In case the symmetry of your molecule has not been determined correctly
or in case you have a reason to use a different symmetry number we print
out the resulting rotational entropy values for sn=1,12:

 non-linear molecules -----------------------------------
|  sn= 1 | S(rot)=       0.01134943 Eh      7.12 kcal/mol|
|  sn= 2 | S(rot)=       0.01069498 Eh      6.71 kcal/mol|
|  sn= 3 | S(rot)=       0.01031214 Eh      6.47 kcal/mol|
|  sn= 4 | S(rot)=       0.01004052 Eh      6.30 kcal/mol|
|  sn= 5 | S(rot)=       0.00982983 Eh      6.17 kcal/mol|
|  sn= 6 | S(rot)=       0.00965769 Eh      6.06 kcal/mol|
|  sn= 7 | S(rot)=       0.00951214 Eh      5.97 kcal/mol|
|  sn= 8 | S(rot)=       0.00938606 Eh      5.89 kcal/mol|
|  sn= 9 | S(rot)=       0.00927485 Eh      5.82 kcal/mol|
|  sn=10 | S(rot)=       0.00917538 Eh      5.76 kcal/mol|
|  sn=11 | S(rot)=       0.00908539 Eh      5.70 kcal/mol|
|  sn=12 | S(rot)=       0.00900323 Eh      5.65 kcal/mol|
 linear molecules ---------------------------------------
|  Dinfh | S(rot)=       0.00696686 Eh      4.37 kcal/mol|
|  Cinfv | S(rot)=       0.00762131 Eh      4.78 kcal/mol|
 --------------------------------------------------------

-------------------
GIBBS FREE ENERGY
-------------------

The Gibbs free energy is G = H - T*S

Total enthalpy                    ...   -228.73113630 Eh
Total entropy correction          ...     -0.03074195 Eh    -19.29 kcal/mol
-----------------------------------------------------------------------
Final Gibbs free energy         ...   -228.76187825 Eh

For completeness - the Gibbs free energy minus the electronic energy
G-E(el)                           ...      0.03422596 Eh     21.48 kcal/mol

                             ****ORCA TERMINATED NORMALLY****
TOTAL RUN TIME: 0 days 0 hours 1 minutes 5 seconds 837 msec
