                         Program Version 6.0.1  -  RELEASE   -
|  1> ! RHF cc-pVTZ  opt anfreq TightSCF
|  2> * XYZ 0 1
|  3> N 0.000000 0.000000 -1.187431
|  4> N 0.000000 0.000000 -0.074171
|  5> O 0.000000 0.000000 1.103902
|  6> *
|  7>
|  8>                          ****END OF INPUT****
 Total Charge           Charge          ....    0
 Multiplicity           Mult            ....    1
 Number of Electrons    NEL             ....   22
FINAL SINGLE POINT ENERGY      -183.752729650260
FINAL SINGLE POINT ENERGY      -183.755657281049
FINAL SINGLE POINT ENERGY      -183.755716525696
FINAL SINGLE POINT ENERGY      -183.755717222877
                    ***********************HURRAY********************

CARTESIAN COORDINATES (ANGSTROEM)
---------------------------------
  N      0.000000   -0.000000   -1.163722
  N     -0.000000    0.000000   -0.081332
  O      0.000000   -0.000000    1.087355

 Multiplicity           Mult            ....    1
 Number of Electrons    NEL             ....   22
 Basis Dimension        Dim             ....   90

ORBITAL ENERGIES
----------------

  NO   OCC          E(Eh)            E(eV)
   0   2.0000     -20.644641      -561.7692
   1   2.0000     -15.833393      -430.8485
   2   2.0000     -15.681025      -426.7024
   3   2.0000      -1.630829       -44.3771
   4   2.0000      -1.449673       -39.4476
   5   2.0000      -0.824376       -22.4324
   6   2.0000      -0.778147       -21.1744
   7   2.0000      -0.778147       -21.1744
   8   2.0000      -0.695505       -18.9257
   9   2.0000      -0.493704       -13.4344
  10   2.0000      -0.493704       -13.4344
  11   0.0000       0.179951         4.8967
  12   0.0000       0.179951         4.8967
  13   0.0000       0.296117         8.0578
  14   0.0000       0.431516        11.7421
  15   0.0000       0.544861        14.8264

MULLIKEN ATOMIC CHARGES
-----------------------
   0 N :   -0.156698
   1 N :    0.453579
   2 O :   -0.296882
Sum of atomic charges:    0.0000000

LOEWDIN ATOMIC CHARGES
----------------------
   0 N :    0.021381
   1 N :    0.005096
   2 O :   -0.026476

  Mayer bond orders larger than 0.100000
B(  0-N ,  1-N ) :   2.5493 B(  0-N ,  2-O ) :   0.2695 B(  1-N ,  2-O ) :   1.7304

FINAL SINGLE POINT ENERGY      -183.755717223647

DIPOLE MOMENT
-------------

Method             : SCF
Type of density    : Electron Density
Multiplicity       :   1
Irrep              :   0
Energy             :  -183.7557172236465135 Eh
Relativity type    :
Basis              : AO
                                X                 Y                 Z
Electronic contribution:     -0.000000006       0.000000006      -0.267729605
Nuclear contribution   :      0.000000000      -0.000000000       0.009250273
                        -----------------------------------------
Total Dipole Moment    :     -0.000000006       0.000000006      -0.258479333
                        -----------------------------------------
Magnitude (a.u.)       :      0.258479333
Magnitude (Debye)      :      0.657002251

VIBRATIONAL FREQUENCIES
-----------------------

Scaling factor for frequencies =  1.000000000  (already applied!)

     0:       0.00 cm**-1
     1:       0.00 cm**-1
     2:       0.00 cm**-1
     3:       0.00 cm**-1
     4:       0.00 cm**-1
     5:     717.24 cm**-1
     6:     717.24 cm**-1
     7:    1386.76 cm**-1
     8:    2607.96 cm**-1

IR SPECTRUM
-----------

 Mode   freq       eps      Int      T**2         TX        TY        TZ
       cm**-1   L/(mol*cm) km/mol    a.u.
----------------------------------------------------------------------------
  5:    717.24   0.003148   15.91  0.001370  ( 0.034394  0.013662  0.000000)
  6:    717.24   0.003148   15.91  0.001370  ( 0.013662 -0.034394  0.000000)
  7:   1386.76   0.036202  182.95  0.008147  (-0.000000  0.000000  0.090259)
  8:   2607.96   0.107154  541.51  0.012822  (-0.000000  0.000000 -0.113234)

--------------------------
THERMOCHEMISTRY AT 298.15K
--------------------------

Temperature         ...   298.15 K
Pressure            ...     1.00 atm
Total Mass          ...    44.01 AMU
Quasi RRHO          ...     True
Cut-Off Frequency   ...     1.00 cm^-1
The molecule is recognized as being linear

Throughout the following assumptions are being made:
  (1) The electronic state is orbitally nondegenerate
  (2) There are no thermally accessible electronically excited states
  (3) Hindered rotations indicated by low frequency modes are not
      treated as such but are treated as vibrations and this may
      cause some error
  (4) All equations used are the standard statistical mechanics
      equations for an ideal gas
  (5) All vibrations are strictly harmonic

freq.     717.24  E(vib)   ...       0.07
freq.     717.24  E(vib)   ...       0.07
freq.    1386.76  E(vib)   ...       0.00
freq.    2607.96  E(vib)   ...       0.00

------------
INNER ENERGY
------------

The inner energy is: U= E(el) + E(ZPE) + E(vib) + E(rot) + E(trans)
    E(el)   - is the total energy from the electronic structure calculation
              = E(kin-el) + E(nuc-el) + E(el-el) + E(nuc-nuc)
    E(ZPE)  - the the zero temperature vibrational energy from the frequency calculation
    E(vib)  - the the finite temperature correction to E(ZPE) due to population
              of excited vibrational states
    E(rot)  - is the rotational thermal energy
    E(trans)- is the translational thermal energy

Summary of contributions to the inner energy U:
Electronic energy                ...   -183.75571722 Eh
Zero point energy                ...      0.01236862 Eh       7.76 kcal/mol
Thermal vibrational correction   ...      0.00021975 Eh       0.14 kcal/mol
Thermal rotational correction    ...      0.00094418 Eh       0.59 kcal/mol
Thermal translational correction ...      0.00141627 Eh       0.89 kcal/mol
-----------------------------------------------------------------------
Total thermal energy                   -183.74076840 Eh

Summary of corrections to the electronic energy:
(perhaps to be used in another calculation)
Total thermal correction                  0.00258020 Eh       1.62 kcal/mol
Non-thermal (ZPE) correction              0.01236862 Eh       7.76 kcal/mol
-----------------------------------------------------------------------
Total correction                          0.01494882 Eh       9.38 kcal/mol

--------
ENTHALPY
--------

The enthalpy is H = U + kB*T
                kB is Boltzmann's constant
Total thermal energy              ...   -183.74076840 Eh
Thermal Enthalpy correction       ...      0.00094421 Eh       0.59 kcal/mol
-----------------------------------------------------------------------
Total Enthalpy                    ...   -183.73982419 Eh

Note: Rotational entropy computed according to Herzberg
Infrared and Raman Spectra, Chapter V,1, Van Nostrand Reinhold, 1945
Point Group:  C(inf)v, Symmetry Number:   1
Rotational constants in cm-1:     0.000000     0.443881     0.443881

Vibrational entropy computed according to the QRRHO of S. Grimme
Chem.Eur.J. 2012 18 9955 using a reference frequency of 100.0 cm-1

-------
ENTROPY
-------

The entropy contributions are T*S = T*(S(el)+S(vib)+S(rot)+S(trans))
     S(el)   - electronic entropy
     S(vib)  - vibrational entropy
     S(rot)  - rotational entropy
     S(trans)- translational entropy
The entropies will be listed as multiplied by the temperature to get
units of energy

Electronic entropy                ...      0.00000000 Eh      0.00 kcal/mol
Vibrational entropy               ...      0.00028137 Eh      0.18 kcal/mol
Rotational entropy                ...      0.00674713 Eh      4.23 kcal/mol
Translational entropy             ...      0.01770893 Eh     11.11 kcal/mol
-----------------------------------------------------------------------
Final entropy term                ...      0.02473743 Eh     15.52 kcal/mol

-------------------
GIBBS FREE ENERGY
-------------------

The Gibbs free energy is G = H - T*S

Total enthalpy                    ...   -183.73982419 Eh
Total entropy correction          ...     -0.02473743 Eh    -15.52 kcal/mol
-----------------------------------------------------------------------
Final Gibbs free energy         ...   -183.76456162 Eh

For completeness - the Gibbs free energy minus the electronic energy
G-E(el)                           ...     -0.00884440 Eh     -5.55 kcal/mol

                             ****ORCA TERMINATED NORMALLY****
TOTAL RUN TIME: 0 days 0 hours 1 minutes 7 seconds 995 msec
