                         Program Version 6.0.1  -  RELEASE   -
|  1> !B3LYP def2-TZVP opt NumFreq
|  2> * XYZ 0 1
|  3> N 0.000000 0.000000 -1.187431
|  4> N 0.000000 0.000000 -0.074171
|  5> O 0.000000 0.000000 1.103902
|  6> *
|  7>
|  8>                          ****END OF INPUT****
 Total Charge           Charge          ....    0
 Multiplicity           Mult            ....    1
 Number of Electrons    NEL             ....   22
FINAL SINGLE POINT ENERGY      -184.661130169827
FINAL SINGLE POINT ENERGY      -184.661318689310
FINAL SINGLE POINT ENERGY      -184.661319421079
                    ***********************HURRAY********************

CARTESIAN COORDINATES (ANGSTROEM)
---------------------------------
  N      0.000000    0.000000   -1.194351
  N     -0.000000   -0.000000   -0.073151
  O      0.000000    0.000000    1.109802

 Multiplicity           Mult            ....    1
 Number of Electrons    NEL             ....   22
 Basis Dimension        Dim             ....   93

ORBITAL ENERGIES
----------------

  NO   OCC          E(Eh)            E(eV)
   0   2.0000     -19.228589      -523.2365
   1   2.0000     -14.545212      -395.7953
   2   2.0000     -14.415153      -392.2563
   3   2.0000      -1.250840       -34.0371
   4   2.0000      -1.095173       -29.8012
   5   2.0000      -0.608282       -16.5522
   6   2.0000      -0.571009       -15.5379
   7   2.0000      -0.571009       -15.5379
   8   2.0000      -0.481780       -13.1099
   9   2.0000      -0.348930        -9.4949
  10   2.0000      -0.348930        -9.4949
  11   0.0000      -0.019790        -0.5385
  12   0.0000      -0.019790        -0.5385
  13   0.0000       0.064499         1.7551
  14   0.0000       0.235101         6.3974
  15   0.0000       0.277122         7.5409

MULLIKEN ATOMIC CHARGES
-----------------------
   0 N :   -0.115562
   1 N :    0.392190
   2 O :   -0.276628
Sum of atomic charges:    0.0000000

LOEWDIN ATOMIC CHARGES
----------------------
   0 N :   -0.005862
   1 N :   -0.009673
   2 O :    0.015536

  Mayer bond orders larger than 0.100000
B(  0-N ,  1-N ) :   2.2087 B(  0-N ,  2-O ) :   0.4233 B(  1-N ,  2-O ) :   1.7093

FINAL SINGLE POINT ENERGY      -184.661319457903

DIPOLE MOMENT
-------------

Method             : SCF
Type of density    : Electron Density
Multiplicity       :   1
Irrep              :   0
Energy             :  -184.6613194579026640 Eh
Relativity type    :
Basis              : AO
                                X                 Y                 Z
Electronic contribution:     -0.000000033      -0.000000009      -0.029248185
Nuclear contribution   :      0.000000000       0.000000000       0.009432430
                        -----------------------------------------
Total Dipole Moment    :     -0.000000033      -0.000000009      -0.019815755
                        -----------------------------------------
Magnitude (a.u.)       :      0.019815755
Magnitude (Debye)      :      0.050367647

VIBRATIONAL FREQUENCIES
-----------------------

Scaling factor for frequencies =  1.000000000  (already applied!)

     0:       0.00 cm**-1
     1:       0.00 cm**-1
     2:       0.00 cm**-1
     3:       0.00 cm**-1
     4:       0.00 cm**-1
     5:     616.53 cm**-1
     6:     616.55 cm**-1
     7:    1333.98 cm**-1
     8:    2343.98 cm**-1

IR SPECTRUM
-----------

 Mode   freq       eps      Int      T**2         TX        TY        TZ
       cm**-1   L/(mol*cm) km/mol    a.u.
----------------------------------------------------------------------------
  5:    616.53   0.001229    6.21  0.000622  (-0.018769  0.016419 -0.000001)
  6:    616.55   0.001229    6.21  0.000622  ( 0.016418  0.018769  0.000001)
  7:   1333.98   0.013291   67.17  0.003109  ( 0.000000  0.000000  0.055760)
  8:   2343.98   0.075605  382.08  0.010066  (-0.000000 -0.000000  0.100328)

--------------------------
THERMOCHEMISTRY AT 298.15K
--------------------------

Temperature         ...   298.15 K
Pressure            ...     1.00 atm
Total Mass          ...    44.01 AMU
Quasi RRHO          ...     True
Cut-Off Frequency   ...     1.00 cm^-1
The molecule is recognized as being linear

Throughout the following assumptions are being made:
  (1) The electronic state is orbitally nondegenerate
  (2) There are no thermally accessible electronically excited states
  (3) Hindered rotations indicated by low frequency modes are not
      treated as such but are treated as vibrations and this may
      cause some error
  (4) All equations used are the standard statistical mechanics
      equations for an ideal gas
  (5) All vibrations are strictly harmonic

freq.     616.53  E(vib)   ...       0.09
freq.     616.55  E(vib)   ...       0.09
freq.    1333.98  E(vib)   ...       0.01
freq.    2343.98  E(vib)   ...       0.00

------------
INNER ENERGY
------------

The inner energy is: U= E(el) + E(ZPE) + E(vib) + E(rot) + E(trans)
    E(el)   - is the total energy from the electronic structure calculation
              = E(kin-el) + E(nuc-el) + E(el-el) + E(nuc-nuc)
    E(ZPE)  - the the zero temperature vibrational energy from the frequency calculation
    E(vib)  - the the finite temperature correction to E(ZPE) due to population
              of excited vibrational states
    E(rot)  - is the rotational thermal energy
    E(trans)- is the translational thermal energy

Summary of contributions to the inner energy U:
Electronic energy                ...   -184.66131946 Eh
Zero point energy                ...      0.01118815 Eh       7.02 kcal/mol
Thermal vibrational correction   ...      0.00031206 Eh       0.20 kcal/mol
Thermal rotational correction    ...      0.00094418 Eh       0.59 kcal/mol
Thermal translational correction ...      0.00141627 Eh       0.89 kcal/mol
-----------------------------------------------------------------------
Total thermal energy                   -184.64745879 Eh

Summary of corrections to the electronic energy:
(perhaps to be used in another calculation)
Total thermal correction                  0.00267251 Eh       1.68 kcal/mol
Non-thermal (ZPE) correction              0.01118815 Eh       7.02 kcal/mol
-----------------------------------------------------------------------
Total correction                          0.01386067 Eh       8.70 kcal/mol

--------
ENTHALPY
--------

The enthalpy is H = U + kB*T
                kB is Boltzmann's constant
Total thermal energy              ...   -184.64745879 Eh
Thermal Enthalpy correction       ...      0.00094421 Eh       0.59 kcal/mol
-----------------------------------------------------------------------
Total Enthalpy                    ...   -184.64651458 Eh

Note: Rotational entropy computed according to Herzberg
Infrared and Raman Spectra, Chapter V,1, Van Nostrand Reinhold, 1945
Point Group:  C(inf)v, Symmetry Number:   1
Rotational constants in cm-1:     0.000000     0.423975     0.423975

Vibrational entropy computed according to the QRRHO of S. Grimme
Chem.Eur.J. 2012 18 9955 using a reference frequency of 100.0 cm-1

-------
ENTROPY
-------

The entropy contributions are T*S = T*(S(el)+S(vib)+S(rot)+S(trans))
     S(el)   - electronic entropy
     S(vib)  - vibrational entropy
     S(rot)  - rotational entropy
     S(trans)- translational entropy
The entropies will be listed as multiplied by the temperature to get
units of energy

Electronic entropy                ...      0.00000000 Eh      0.00 kcal/mol
Vibrational entropy               ...      0.00041292 Eh      0.26 kcal/mol
Rotational entropy                ...      0.00679045 Eh      4.26 kcal/mol
Translational entropy             ...      0.01770893 Eh     11.11 kcal/mol
-----------------------------------------------------------------------
Final entropy term                ...      0.02491229 Eh     15.63 kcal/mol

-------------------
GIBBS FREE ENERGY
-------------------

The Gibbs free energy is G = H - T*S

Total enthalpy                    ...   -184.64651458 Eh
Total entropy correction          ...     -0.02491229 Eh    -15.63 kcal/mol
-----------------------------------------------------------------------
Final Gibbs free energy         ...   -184.67142688 Eh

For completeness - the Gibbs free energy minus the electronic energy
G-E(el)                           ...     -0.01010742 Eh     -6.34 kcal/mol

                             ****ORCA TERMINATED NORMALLY****
TOTAL RUN TIME: 0 days 0 hours 2 minutes 48 seconds 810 msec
