                         Program Version 6.0.1  -  RELEASE   -
|  1> !MP2 cc-pVTZ opt NumFreq
|  2> * XYZ 0 1
|  3> N 0.000000 0.000000 -1.187431
|  4> N 0.000000 0.000000 -0.074171
|  5> O 0.000000 0.000000 1.103902
|  6> *
|  7>
|  8>                          ****END OF INPUT****
 Total Charge           Charge          ....    0
 Multiplicity           Mult            ....    1
 Number of Electrons    NEL             ....   22
MP2 TOTAL ENERGY:     -184.390453763 Eh
FINAL SINGLE POINT ENERGY      -184.390453762507
MP2 TOTAL ENERGY:     -184.393547504 Eh
FINAL SINGLE POINT ENERGY      -184.393547504404
MP2 TOTAL ENERGY:     -184.393683806 Eh
FINAL SINGLE POINT ENERGY      -184.393683806127
MP2 TOTAL ENERGY:     -184.393687465 Eh
FINAL SINGLE POINT ENERGY      -184.393687465126
                    ***********************HURRAY********************

CARTESIAN COORDINATES (ANGSTROEM)
---------------------------------
  N      0.000000   -0.000000   -1.215945
  N     -0.000000    0.000000   -0.060793
  O      0.000000   -0.000000    1.119038

 Multiplicity           Mult            ....    1
 Number of Electrons    NEL             ....   22
 Basis Dimension        Dim             ....   90

ORBITAL ENERGIES
----------------

  NO   OCC          E(Eh)            E(eV)
   0   2.0000     -20.661402      -562.2253
   1   2.0000     -15.849739      -431.2933
   2   2.0000     -15.700415      -427.2300
   3   2.0000      -1.612810       -43.8868
   4   2.0000      -1.405985       -38.2588
   5   2.0000      -0.837806       -22.7979
   6   2.0000      -0.757434       -20.6108
   7   2.0000      -0.757434       -20.6108
   8   2.0000      -0.695616       -18.9287
   9   2.0000      -0.485594       -13.2137
  10   2.0000      -0.485594       -13.2137
  11   0.0000       0.143714         3.9106
  12   0.0000       0.143714         3.9106
  13   0.0000       0.287163         7.8141
  14   0.0000       0.416772        11.3409
  15   0.0000       0.554144        15.0790

MULLIKEN ATOMIC CHARGES
-----------------------
   0 N :   -0.136142
   1 N :    0.271138
   2 O :   -0.134995
Sum of atomic charges:   -0.0000000

LOEWDIN ATOMIC CHARGES
----------------------
   0 N :   -0.025559
   1 N :   -0.053920
   2 O :    0.079480

  Mayer bond orders larger than 0.100000
B(  0-N ,  1-N ) :   2.1131 B(  0-N ,  2-O ) :   0.3780 B(  1-N ,  2-O ) :   1.7429

MP2 TOTAL ENERGY:     -184.393687662 Eh
FINAL SINGLE POINT ENERGY      -184.393687661680

DIPOLE MOMENT
-------------

Method             : MP2
Type of density    : Electron Density
Multiplicity       :   1
Level              : Relaxed density
Irrep              :   0
Energy             :     0.0000000000000000 Eh
Relativity type    :
Basis              : AO
                                X                 Y                 Z
Electronic contribution:     -0.000000003       0.000000003       0.073066537
Nuclear contribution   :      0.000000000      -0.000000000       0.009507377
                        -----------------------------------------
Total Dipole Moment    :     -0.000000003       0.000000003       0.082573913
                        -----------------------------------------
Magnitude (a.u.)       :      0.082573913
Magnitude (Debye)      :      0.209886208

VIBRATIONAL FREQUENCIES
-----------------------

Scaling factor for frequencies =  1.000000000  (already applied!)

     0:       0.00 cm**-1
     1:       0.00 cm**-1
     2:       0.00 cm**-1
     3:       0.00 cm**-1
     4:       0.00 cm**-1
     5:     593.71 cm**-1
     6:     593.71 cm**-1
     7:    1292.37 cm**-1
     8:    2244.73 cm**-1

IR SPECTRUM
-----------

 Mode   freq       eps      Int      T**2         TX        TY        TZ
       cm**-1   L/(mol*cm) km/mol    a.u.
----------------------------------------------------------------------------
  5:    593.71   0.000802    4.05  0.000421  ( 0.014189  0.014834  0.000000)
  6:    593.71   0.000802    4.05  0.000421  ( 0.014834 -0.014189  0.000000)
  7:   1292.37   0.002320   11.72  0.000560  ( 0.000000 -0.000000 -0.023669)
  8:   2244.73   0.063335  320.07  0.008805  (-0.000000  0.000000 -0.093835)

--------------------------
THERMOCHEMISTRY AT 298.15K
--------------------------

Temperature         ...   298.15 K
Pressure            ...     1.00 atm
Total Mass          ...    44.01 AMU
Quasi RRHO          ...     True
Cut-Off Frequency   ...     1.00 cm^-1
The molecule is recognized as being linear

Throughout the following assumptions are being made:
  (1) The electronic state is orbitally nondegenerate
  (2) There are no thermally accessible electronically excited states
  (3) Hindered rotations indicated by low frequency modes are not
      treated as such but are treated as vibrations and this may
      cause some error
  (4) All equations used are the standard statistical mechanics
      equations for an ideal gas
  (5) All vibrations are strictly harmonic

freq.     593.71  E(vib)   ...       0.10
freq.     593.71  E(vib)   ...       0.10
freq.    1292.37  E(vib)   ...       0.01
freq.    2244.73  E(vib)   ...       0.00

------------
INNER ENERGY
------------

The inner energy is: U= E(el) + E(ZPE) + E(vib) + E(rot) + E(trans)
    E(el)   - is the total energy from the electronic structure calculation
              = E(kin-el) + E(nuc-el) + E(el-el) + E(nuc-nuc)
    E(ZPE)  - the the zero temperature vibrational energy from the frequency calculation
    E(vib)  - the the finite temperature correction to E(ZPE) due to population
              of excited vibrational states
    E(rot)  - is the rotational thermal energy
    E(trans)- is the translational thermal energy

Summary of contributions to the inner energy U:
Electronic energy                ...   -184.39368773 Eh
Zero point energy                ...      0.01076325 Eh       6.75 kcal/mol
Thermal vibrational correction   ...      0.00033868 Eh       0.21 kcal/mol
Thermal rotational correction    ...      0.00094418 Eh       0.59 kcal/mol
Thermal translational correction ...      0.00141627 Eh       0.89 kcal/mol
-----------------------------------------------------------------------
Total thermal energy                   -184.38022535 Eh

Summary of corrections to the electronic energy:
(perhaps to be used in another calculation)
Total thermal correction                  0.00269913 Eh       1.69 kcal/mol
Non-thermal (ZPE) correction              0.01076325 Eh       6.75 kcal/mol
-----------------------------------------------------------------------
Total correction                          0.01346238 Eh       8.45 kcal/mol

--------
ENTHALPY
--------

The enthalpy is H = U + kB*T
                kB is Boltzmann's constant
Total thermal energy              ...   -184.38022535 Eh
Thermal Enthalpy correction       ...      0.00094421 Eh       0.59 kcal/mol
-----------------------------------------------------------------------
Total Enthalpy                    ...   -184.37928115 Eh

Note: Rotational entropy computed according to Herzberg
Infrared and Raman Spectra, Chapter V,1, Van Nostrand Reinhold, 1945
Point Group:  C(inf)v, Symmetry Number:   1
Rotational constants in cm-1:     0.000000     0.413217     0.413217

Vibrational entropy computed according to the QRRHO of S. Grimme
Chem.Eur.J. 2012 18 9955 using a reference frequency of 100.0 cm-1

-------
ENTROPY
-------

The entropy contributions are T*S = T*(S(el)+S(vib)+S(rot)+S(trans))
     S(el)   - electronic entropy
     S(vib)  - vibrational entropy
     S(rot)  - rotational entropy
     S(trans)- translational entropy
The entropies will be listed as multiplied by the temperature to get
units of energy

Electronic entropy                ...      0.00000000 Eh      0.00 kcal/mol
Vibrational entropy               ...      0.00045181 Eh      0.28 kcal/mol
Rotational entropy                ...      0.00681471 Eh      4.28 kcal/mol
Translational entropy             ...      0.01770893 Eh     11.11 kcal/mol
-----------------------------------------------------------------------
Final entropy term                ...      0.02497545 Eh     15.67 kcal/mol

-------------------
GIBBS FREE ENERGY
-------------------

The Gibbs free energy is G = H - T*S

Total enthalpy                    ...   -184.37928115 Eh
Total entropy correction          ...     -0.02497545 Eh    -15.67 kcal/mol
-----------------------------------------------------------------------
Final Gibbs free energy         ...   -184.40425660 Eh

For completeness - the Gibbs free energy minus the electronic energy
G-E(el)                           ...     -0.01056887 Eh     -6.63 kcal/mol

                             ****ORCA TERMINATED NORMALLY****
TOTAL RUN TIME: 0 days 0 hours 4 minutes 55 seconds 517 msec
